[Molden Format]
[Title]
[Atoms] AU
H      1     1  0.14204693333547E+01  0.13984540240029E+01  0.42196639499712E+01
C      2     6  0.40579978800099E+00  0.16920985665076E+01  0.24409781324335E+01
C      3     6 -0.22207683471314E+01  0.18016837844744E+01  0.24288649879747E+01
H      4     1 -0.32732135177163E+01  0.15942107532523E+01  0.41977053324031E+01
C      5     6 -0.35102985573112E+01  0.21747157214744E+01  0.16858246757739E+00
H      6     1 -0.55771676088536E+01  0.22607738491897E+01  0.15900155612556E+00
C      7     6 -0.21734873994934E+01  0.24382947213365E+01 -0.20796247028835E+01
H      8     1 -0.31882325338921E+01  0.27318447775350E+01 -0.38581971368538E+01
C      9     6  0.45304294111650E+00  0.23286339143248E+01 -0.20674737639022E+01
H     10     1  0.15049589883865E+01  0.25358045893669E+01 -0.38365786699882E+01
C     11     6  0.17426109458187E+01  0.19556019773247E+01  0.19277096197253E+00
H     12     1  0.38094044083161E+01  0.18693170824745E+01  0.20240856520810E+00
[GTO]
           1 0
 s           3   1.00000000000000     
   3.37022769753360       0.273591105889083     
  0.613891182214980       0.264605406538605     
  0.166142911484160       8.246594753408230E-002
 
           2 0
 s           4   1.00000000000000     
   51.0493630955799      -0.163120632101274     
   8.79112274068875      -0.199110245810007     
  0.706404222589298       0.318820477536558     
  0.269228134134116       0.127065041842404     
 p           4   1.00000000000000     
   5.82636561408000       0.737164515452096     
   1.51068960187200       0.682163716148503     
  0.532564832880000       0.357830539292537     
  0.212023236906000       5.398303027584788E-002
 
           3 0
 s           4   1.00000000000000     
   51.0493630955799      -0.163120632101274     
   8.79112274068875      -0.199110245810007     
  0.706404222589298       0.318820477536558     
  0.269228134134116       0.127065041842404     
 p           4   1.00000000000000     
   5.82636561408000       0.737164515452096     
   1.51068960187200       0.682163716148503     
  0.532564832880000       0.357830539292537     
  0.212023236906000       5.398303027584788E-002
 
           4 0
 s           3   1.00000000000000     
   3.37022769753360       0.273591105889083     
  0.613891182214980       0.264605406538605     
  0.166142911484160       8.246594753408230E-002
 
           5 0
 s           4   1.00000000000000     
   51.0493630955799      -0.163120632101274     
   8.79112274068875      -0.199110245810007     
  0.706404222589298       0.318820477536558     
  0.269228134134116       0.127065041842404     
 p           4   1.00000000000000     
   5.82636561408000       0.737164515452096     
   1.51068960187200       0.682163716148503     
  0.532564832880000       0.357830539292537     
  0.212023236906000       5.398303027584788E-002
 
           6 0
 s           3   1.00000000000000     
   3.37022769753360       0.273591105889083     
  0.613891182214980       0.264605406538605     
  0.166142911484160       8.246594753408230E-002
 
           7 0
 s           4   1.00000000000000     
   51.0493630955799      -0.163120632101274     
   8.79112274068875      -0.199110245810007     
  0.706404222589298       0.318820477536558     
  0.269228134134116       0.127065041842404     
 p           4   1.00000000000000     
   5.82636561408000       0.737164515452096     
   1.51068960187200       0.682163716148503     
  0.532564832880000       0.357830539292537     
  0.212023236906000       5.398303027584788E-002
 
           8 0
 s           3   1.00000000000000     
   3.37022769753360       0.273591105889083     
  0.613891182214980       0.264605406538605     
  0.166142911484160       8.246594753408230E-002
 
           9 0
 s           4   1.00000000000000     
   51.0493630955799      -0.163120632101274     
   8.79112274068875      -0.199110245810007     
  0.706404222589298       0.318820477536558     
  0.269228134134116       0.127065041842404     
 p           4   1.00000000000000     
   5.82636561408000       0.737164515452096     
   1.51068960187200       0.682163716148503     
  0.532564832880000       0.357830539292537     
  0.212023236906000       5.398303027584788E-002
 
          10 0
 s           3   1.00000000000000     
   3.37022769753360       0.273591105889083     
  0.613891182214980       0.264605406538605     
  0.166142911484160       8.246594753408230E-002
 
          11 0
 s           4   1.00000000000000     
   51.0493630955799      -0.163120632101274     
   8.79112274068875      -0.199110245810007     
  0.706404222589298       0.318820477536558     
  0.269228134134116       0.127065041842404     
 p           4   1.00000000000000     
   5.82636561408000       0.737164515452096     
   1.51068960187200       0.682163716148503     
  0.532564832880000       0.357830539292537     
  0.212023236906000       5.398303027584788E-002
 
          12 0
 s           3   1.00000000000000     
   3.37022769753360       0.273591105889083     
  0.613891182214980       0.264605406538605     
  0.166142911484160       8.246594753408230E-002
 
[MO]
Sym=     1a
Ene=  -0.640012422015729     
Spin= Alpha
Occup=     2.00000000
           1  4.601192257781240E-002
           2  0.269826932140339     
           3 -5.004940375577902E-002
           4  1.447863475817581E-002
           5 -8.772483749637726E-002
           6  0.269821870745260     
           7  5.188693098306774E-002
           8  1.022412651951368E-002
           9 -8.725143970850811E-002
          10  4.601125973352141E-002
          11  0.269835295500279     
          12  0.101934392595160     
          13 -4.249985762948181E-003
          14  4.636542181191460E-004
          15  4.601602457410304E-002
          16  0.269845539785640     
          17  5.006216245186122E-002
          18 -1.448350979647641E-002
          19  8.771777519672766E-002
          20  4.602051101244858E-002
          21  0.269860196756089     
          22 -5.189199188671589E-002
          23 -1.022399354260375E-002
          24  8.725151216462972E-002
          25  4.602532729832732E-002
          26  0.269851086235083     
          27 -0.101937555595494     
          28  4.252239979239601E-003
          29 -4.738304431718447E-004
          30  4.602344019770799E-002
Sym=     2a
Ene=  -0.609976858350107     
Spin= Alpha
Occup=     2.00000000
           1 -0.106660662259715     
           2 -0.343276918350992     
           3  7.346578761822287E-002
           4 -1.113406762687501E-003
           5 -1.343365918661300E-002
           6 -0.313985789649310     
           7 -9.082452915080617E-002
           8  7.524024093159337E-003
           9 -2.676921687082064E-002
          10 -9.755042371414842E-002
          11  2.926318540186243E-002
          12  3.787185269509482E-003
          13  2.267487508955991E-002
          14 -0.161195770432037     
          15  9.094720916746370E-003
          16  0.343265704481483     
          17  7.347634089184327E-002
          18 -1.116417362755604E-003
          19 -1.345984008862530E-002
          20  0.106668541601056     
          21  0.313977699393644     
          22 -9.083487223233000E-002
          23  7.528045779437911E-003
          24 -2.680336127069653E-002
          25  9.757330042343290E-002
          26 -2.931869731802359E-002
          27  3.793485427657113E-003
          28  2.267306920053588E-002
          29 -0.161195398718597     
          30 -9.114638175914690E-003
Sym=     3a
Ene=  -0.609973363782487     
Spin= Alpha
Occup=     2.00000000
           1 -5.106567718997076E-002
           2 -0.164356177011961     
           3 -0.122413572310869     
           4 -6.651956579055737E-003
           5  8.246615665195942E-002
           6  0.215106870234825     
           7 -0.108012011225983     
           8  1.582342941627717E-002
           9 -8.042733395194659E-002
          10  6.685182109854342E-002
          11  0.379468446204098     
          12  2.706173887265659E-002
          13 -2.890178534007358E-003
          14  1.256930886803215E-002
          15  0.117918150277627     
          16  0.164375087562127     
          17 -0.122407108228387     
          18 -6.654741712717884E-003
          19  8.246463306711932E-002
          20  5.107701032308601E-002
          21 -0.215088381080178     
          22 -0.108022647936873     
          23  1.582573822910663E-002
          24 -8.042350910568458E-002
          25 -6.683917417254323E-002
          26 -0.379465344723900     
          27  2.705443689546323E-002
          28 -2.889156439250982E-003
          29  1.256858356167227E-002
          30 -0.117926601393724     
Sym=     4a
Ene=  -0.567629280676960     
Spin= Alpha
Occup=     2.00000000
           1 -0.167139541756723     
           2 -0.297589586091853     
           3 -5.583823554977922E-002
           4  1.225984425569876E-002
           5 -7.038076377654370E-002
           6  0.162393259240786     
           7 -0.211216995830981     
           8  1.805457093281378E-002
           9 -6.627462361307743E-002
          10  9.124178575702080E-002
          11  0.135164499986499     
          12 -4.307927220298201E-002
          13 -3.049818815548042E-002
          14  0.227805231164014     
          15  7.591607995801299E-002
          16 -0.297563092738013     
          17  5.585128111414984E-002
          18 -1.226096528445300E-002
          19  7.038051765366955E-002
          20 -0.167139322712746     
          21  0.162412368924422     
          22  0.211201428386977     
          23 -1.806362459098805E-002
          24  6.627454138313454E-002
          25  9.121377817663033E-002
          26  0.135162251667008     
          27  4.307587570578432E-002
          28  3.049197966176890E-002
          29 -0.227816980640961     
          30  7.590949053564088E-002
Sym=     5a
Ene=  -0.567627984485206     
Spin= Alpha
Occup=     2.00000000
           1 -8.864602769535115E-003
           2 -1.575799378897914E-002
           3  0.222268535224287     
           4  9.396468625211794E-003
           5 -0.130792503801044     
           6 -0.249854914402936     
           7 -8.283584296306362E-002
           8  2.247325903956328E-002
           9 -0.134638776463133     
          10 -0.140313270884865     
          11  0.265566650491194     
          12 -7.872043977592032E-002
          13  1.972266909738489E-002
          14 -0.116434604581118     
          15  0.149163215069240     
          16 -1.569359974017940E-002
          17 -0.222275213039149     
          18 -9.395133155649226E-003
          19  0.130793626042858     
          20 -8.828937819871596E-003
          21 -0.249830827095514     
          22  8.282014257783872E-002
          23 -2.247126263190296E-002
          24  0.134658647161680     
          25 -0.140346072672571     
          26  0.265561116545034     
          27  7.873040168543471E-002
          28 -1.971837550420736E-002
          29  0.116401048663823     
          30  0.149175485502870     
Sym=     6a
Ene=  -0.529455821681141     
Spin= Alpha
Occup=     2.00000000
           1 -0.189239793419788     
           2 -6.542844312448573E-002
           3 -0.111022599384436     
           4  3.212149459945209E-002
           5 -0.194531890518152     
           6 -6.542621241993185E-002
           7  0.115101052163797     
           8  2.269241848644736E-002
           9 -0.193488857687081     
          10 -0.189240654918910     
          11 -6.540218357190397E-002
          12  0.226087125323856     
          13 -9.411783698967153E-003
          14  1.017586989164848E-003
          15 -0.189236666103670     
          16 -6.541782225097049E-002
          17  0.111004645080950     
          18 -3.210497830460225E-002
          19  0.194568475324211     
          20 -0.189253607949340     
          21 -6.539750474521049E-002
          22 -0.115076995879917     
          23 -2.266768484565243E-002
          24  0.193528606682203     
          25 -0.189245130953872     
          26 -6.541826256770314E-002
          27 -0.226101844793931     
          28  9.446435879119608E-003
          29 -1.063696871904867E-003
          30 -0.189257455667199     
Sym=     7a
Ene=  -0.493949131337171     
Spin= Alpha
Occup=     2.00000000
           1 -0.234918828476278     
           2 -0.190461380517231     
           3 -8.146268406183124E-002
           4  2.367023925313226E-002
           5 -0.143372443897149     
           6  0.190483152825579     
           7 -8.494483878560426E-002
           8 -1.664933430934981E-002
           9  0.142279667763571     
          10  0.234888513025136     
          11 -0.190497607115365     
          12  0.166342635937204     
          13 -6.948967704679282E-003
          14  1.084192167478292E-003
          15 -0.234850463106076     
          16  0.190471276331412     
          17 -8.144157248674322E-002
          18  2.368815078334535E-002
          19 -0.143384824696462     
          20  0.234929631185911     
          21 -0.190457694953604     
          22 -8.495117931613988E-002
          23 -1.662192265908163E-002
          24  0.142287891895913     
          25 -0.234886264069672     
          26  0.190453648237946     
          27  0.166312138834940     
          28 -6.956688595101086E-003
          29  1.066316025503369E-003
          30  0.234808468387946     
Sym=     8a
Ene=  -0.488971298542115     
Spin= Alpha
Occup=     2.00000000
           1 -1.249604096539048E-004
           2 -1.945249403955871E-004
           3 -0.288453001154969     
           4 -1.119162845085595E-002
           5  0.162668711752785     
           6  1.977041425358770E-004
           7  0.284825179127817     
           8 -3.513929333361725E-002
           9  0.165568586873958     
          10  2.631993153204898E-004
          11 -1.781350027287643E-004
          12  3.562506265714596E-003
          13  4.631983649761359E-002
          14 -0.328046939141494     
          15 -1.875466126131674E-004
          16  1.954476062824582E-004
          17 -0.288447521784853     
          18 -1.118214474947428E-002
          19  0.162596621259032     
          20  1.955924131057889E-004
          21 -1.474115740169714E-004
          22  0.284848383695985     
          23 -3.515226450534594E-002
          24  0.165561084228536     
          25 -2.990002831587653E-004
          26  1.869428878490916E-004
          27  3.596272536906568E-003
          28  4.631456577641885E-002
          29 -0.328108515237531     
          30  2.091184440277562E-004
Sym=     9a
Ene=  -0.475806490993141     
Spin= Alpha
Occup=     2.00000000
           1 -0.267887049085312     
           2  6.995807159575580E-002
           3 -0.195476342557740     
           4  4.703088913565515E-002
           5 -0.275111148893860     
           6  5.899552526598183E-002
           7  0.193884165464353     
           8  2.275564478272327E-002
           9 -0.216567527005533     
          10 -0.226017539219923     
          11 -1.091043961424484E-002
          12 -5.394174161559945E-002
          13 -1.027233223630563E-002
          14  8.836975680126616E-002
          15  4.193588945189983E-002
          16 -6.998326350717293E-002
          17 -0.195477128587580     
          18  4.700961468180125E-002
          19 -0.275093446792531     
          20  0.267857914811870     
          21 -5.900547773920044E-002
          22  0.193886883840872     
          23  2.270742987803499E-002
          24 -0.216558973536124     
          25  0.226006272186092     
          26  1.092819304729887E-002
          27 -5.394834294423666E-002
          28 -1.027689877956831E-002
          29  8.836043115174753E-002
          30 -4.193564068719222E-002
Sym=    10a
Ene=  -0.475797576428005     
Spin= Alpha
Occup=     2.00000000
           1 -0.106213600289664     
           2  2.780874390726223E-002
           3  7.307746552391091E-003
           4  2.183316117313825E-002
           5 -0.156990539533960     
           6 -4.675384104536044E-002
           7 -5.412425142418348E-002
           8 -3.033271115535939E-002
           9  0.228995247032995     
          10  0.178835476065602     
          11 -7.448040107439464E-002
          12 -0.360515610558472     
          13  1.674848994073983E-002
          14 -1.468079894424685E-002
          15  0.285166391996677     
          16 -2.778630274775559E-002
          17  7.275069961173437E-003
          18  2.183637893300133E-002
          19 -0.157009607927008     
          20  0.106255934572441     
          21  4.675648836834974E-002
          22 -5.408895396722851E-002
          23 -3.028860645310569E-002
          24  0.229000542511753     
          25 -0.178812629230029     
          26  7.446114345258176E-002
          27 -0.360542261717102     
          28  1.679892953453261E-002
          29 -1.467513569117028E-002
          30 -0.285199280079338     
Sym=    11a
Ene=  -0.473216416793058     
Spin= Alpha
Occup=     2.00000000
           1  2.275492107338422E-005
           2  2.384436747395430E-005
           3  1.389629482414933E-002
           4  0.337688117635143     
           5  4.783203439461835E-002
           6 -1.877225752518020E-005
           7  1.383063163934654E-002
           8  0.337675110920791     
           9  4.790084871354993E-002
          10  4.355417909289679E-005
          11  6.956857143884172E-007
          12  1.372558862937726E-002
          13  0.337694568171558     
          14  4.783051747564313E-002
          15  1.062284065890881E-004
          16 -9.269007300677445E-006
          17  1.389168497784597E-002
          18  0.337699244880750     
          19  4.779857613099516E-002
          20  6.398203879999121E-006
          21  4.300431103378224E-005
          22  1.386018964381335E-002
          23  0.337698231441118     
          24  4.789499734799131E-002
          25 -5.820343983962723E-005
          26  1.323889009459264E-005
          27  1.375933964152297E-002
          28  0.337712254621059     
          29  4.780019905288601E-002
          30 -9.806001952392217E-005
Sym=    12a
Ene=  -0.421783158694427     
Spin= Alpha
Occup=     2.00000000
           1  0.302287461294914     
           2 -1.373482888838235E-002
           3  3.411794426517786E-002
           4 -4.019550085794008E-002
           5  0.273352696426190     
           6  1.113558266913773E-002
           7 -6.634062511553164E-002
           8  4.223906686444512E-002
           9 -0.279293541559054     
          10 -0.245761151119529     
          11  2.589671181503966E-003
          12  4.492131593619633E-002
          13 -4.490189531020774E-002
          14  0.304047071223902     
          15 -5.652401790141320E-002
          16 -1.372342512671401E-002
          17 -3.405690526867514E-002
          18  4.015912137135822E-002
          19 -0.273382962062793     
          20  0.302273296123229     
          21  1.115878070338338E-002
          22  6.630245725357399E-002
          23 -4.223733748866292E-002
          24  0.279234119214621     
          25 -0.245745232666481     
          26  2.578061197619587E-003
          27 -4.491050683359463E-002
          28  4.485215387226821E-002
          29 -0.303988214468385     
          30 -5.652237817466149E-002
Sym=    13a
Ene=  -0.421771832268862     
Spin= Alpha
Occup=     2.00000000
           1 -0.109268083598225     
           2  4.932112074958648E-003
           3 -0.300801798248414     
           4  3.336838458819473E-003
           5  6.394273879171451E-002
           6  9.425598569463067E-003
           7  0.294676177340036     
           8 -7.610978387515949E-003
           9 -3.192850581697885E-002
          10 -0.207154802667654     
          11 -1.437845741707721E-002
          12 -0.269847909995572     
          13  3.457881132547151E-003
          14  5.303825033660577E-002
          15  0.316429489219692     
          16  4.957120673872743E-003
          17  0.300817998800397     
          18 -3.339469988567550E-003
          19 -6.397411538026149E-002
          20 -0.109243641461724     
          21  9.414184664002343E-003
          22 -0.294707814619775     
          23  7.635571808113603E-003
          24  3.197449112382372E-002
          25 -0.207171397947113     
          26 -1.436505493692895E-002
          27  0.269811399083600     
          28 -3.496827236561163E-003
          29 -5.302501744966313E-002
          30  0.316392469365177     
Sym=    14a
Ene=  -0.401826196911764     
Spin= Alpha
Occup=     2.00000000
           1 -3.048514889795494E-005
           2  6.169527556927769E-006
           3 -1.893370872983076E-002
           4 -0.460722977529216     
           5 -6.528898033745295E-002
           6 -1.989185716222012E-005
           7 -1.870368597569959E-002
           8 -0.456154630281684     
           9 -6.460066629344102E-002
          10  1.717311801164735E-005
          11  7.494205132160274E-006
          12  1.863470824859977E-004
          13  4.567042855769762E-003
          14  6.152741816128235E-004
          15  7.384572173366292E-006
          16  7.107586877185586E-006
          17  1.892136096809307E-002
          18  0.460713664194210     
          19  6.527975725422559E-002
          20 -3.325857855938413E-005
          21  2.182762681938874E-006
          22  1.875364211380079E-002
          23  0.456153243362093     
          24  6.453986481962275E-002
          25  3.750607427180029E-005
          26 -8.353576447163970E-006
          27 -1.811303098442502E-004
          28 -4.585674015843301E-003
          29 -6.172028558330844E-004
          30  3.327695961571877E-006
Sym=    15a
Ene=  -0.401822925608932     
Spin= Alpha
Occup=     2.00000000
           1 -3.171524153952484E-005
           2  1.033455969626955E-006
           3 -1.075783862886618E-002
           4 -0.260712024811978     
           5 -3.693130817524352E-002
           6  6.910241178681324E-006
           7  1.107074160513735E-002
           8  0.268642729653745     
           9  3.807201417457586E-002
          10 -2.141518679110883E-005
          11 -3.195569534243498E-006
          12  2.164743714237941E-002
          13  0.529364907880719     
          14  7.497290717518239E-002
          15  6.280214345464822E-005
          16  8.800798109238302E-006
          17  1.076439059985341E-002
          18  0.260721387794717     
          19  3.692562704924778E-002
          20 -3.334691014509999E-005
          21  4.967645886841818E-006
          22 -1.110162638954554E-002
          23 -0.268629822624918     
          24 -3.803171773860700E-002
          25 -2.876260672535635E-005
          26 -5.467964899981712E-006
          27 -2.171050837791152E-002
          28 -0.529357696453869     
          29 -7.495879562366443E-002
          30  4.836534779911689E-005
Sym=    16a
Ene=  -0.223033406876075     
Spin= Alpha
Occup=     0.00000000
           1 -4.140969773350322E-006
           2  6.220546386201788E-006
           3  2.605703068878694E-002
           4  0.634373619591016     
           5  8.985936870538073E-002
           6 -2.386043296404940E-005
           7 -1.605415923252529E-002
           8 -0.391240956480824     
           9 -5.542518086560833E-002
          10  1.372040139373383E-005
          11 -8.700810740131323E-006
          12 -9.967630592023562E-003
          13 -0.243119582308467     
          14 -3.441774786337654E-002
          15  1.387167487119570E-005
          16  1.961634747429294E-005
          17  2.605913584267479E-002
          18  0.634362551384800     
          19  8.984852473085479E-002
          20  2.666546818430931E-006
          21 -1.200280810341182E-005
          22 -1.607445038309063E-002
          23 -0.391236831248769     
          24 -5.538120083554339E-002
          25  1.325334920903757E-005
          26 -1.037647802194931E-005
          27 -9.984141180286702E-003
          28 -0.243133799093539     
          29 -3.443570524253394E-002
          30  6.668447006874432E-006
Sym=    17a
Ene=  -0.223028916795586     
Spin= Alpha
Occup=     0.00000000
           1  3.508848547440318E-006
           2  1.069864651909185E-006
           3 -3.530243199328147E-003
           4 -8.551404132416753E-002
           5 -1.210460066001909E-002
           6 -2.530473330125864E-005
           7 -2.078600376989891E-002
           8 -0.506628751945282     
           9 -7.177253818847507E-002
          10  6.630097357897759E-006
          11  8.143216223353656E-006
          12  2.427134966561981E-002
          13  0.592142983163187     
          14  8.387819548504427E-002
          15 -8.987040987372300E-006
          16 -6.383463614778556E-006
          17 -3.509230715033055E-003
          18 -8.551375208828219E-002
          19 -1.211626526549649E-002
          20  2.077601887760096E-006
          21 -4.341166584938017E-006
          22 -2.084106033690449E-002
          23 -0.506622132370373     
          24 -7.172314804486629E-002
          25  6.539871709971966E-006
          26  6.519077701353670E-006
          27  2.432461855286643E-002
          28  0.592129957045536     
          29  8.384909210215105E-002
          30  8.041328711741611E-006
Sym=    18a
Ene=  -9.420191330434316E-002
Spin= Alpha
Occup=     0.00000000
           1 -2.092872492060677E-005
           2  3.472606442233518E-005
           3  2.059167137691820E-002
           4  0.501371903863435     
           5  7.101177615561935E-002
           6 -3.954547837315945E-005
           7 -2.057406145359147E-002
           8 -0.501369986218309     
           9 -7.103355032524808E-002
          10  3.233753352116082E-005
          11  4.194693456725932E-005
          12  2.055420287966761E-002
          13  0.501381337913009     
          14  7.100556923889566E-002
          15 -4.065801000091562E-005
          16 -2.554384910752022E-005
          17 -2.059391498186559E-002
          18 -0.501389366754377     
          19 -7.102566775898904E-002
          20 -1.180805916873227E-006
          21  3.955583318143922E-005
          22  2.060892379601145E-002
          23  0.501400750407011     
          24  7.097400595242435E-002
          25 -4.691768448858032E-005
          26 -1.828166967952404E-005
          27 -2.059030661841478E-002
          28 -0.501386606639651     
          29 -7.101404321646397E-002
          30  6.636847412306114E-006
Sym=    19a
Ene=   9.852608797931886E-002
Spin= Alpha
Occup=     0.00000000
           1 -0.457342170281922     
           2  0.316564907940614     
           3  0.142878136088192     
           4 -4.131703703895877E-002
           5  0.250224837081401     
           6  0.316328601970656     
           7 -0.148028759888340     
           8 -2.919942494778151E-002
           9  0.248946755149753     
          10 -0.457187576694756     
          11  0.316370318075550     
          12 -0.290779323742269     
          13  1.207433736020250E-002
          14 -1.205279385544698E-003
          15 -0.457159717958080     
          16  0.316233054433978     
          17 -0.142679866744573     
          18  4.127785548908475E-002
          19 -0.249925710296503     
          20 -0.456788316807850     
          21  0.316338757072193     
          22  0.147958050353308     
          23  2.908476816953665E-002
          24 -0.248595423601948     
          25 -0.456907191117630     
          26  0.315986981681722     
          27  0.290629926085764     
          28 -1.212020236197738E-002
          29  1.369515552223408E-003
          30 -0.456840104228857     
Sym=    20a
Ene=   0.116771386823134     
Spin= Alpha
Occup=     0.00000000
           1 -0.385115790031618     
           2  0.522302812367299     
           3  2.914400329948325E-002
           4 -8.465329842486239E-003
           5  5.105516369875755E-002
           6 -0.522317504926344     
           7  3.025936919263843E-002
           8  6.012910463157967E-003
           9 -5.081461147188350E-002
          10  0.385177759142923     
          11  0.521812440042746     
          12 -5.895231600437793E-002
          13  2.400808574152619E-003
          14 -1.948075864066826E-004
          15 -0.384472182432226     
          16 -0.521994345012632     
          17  2.928192660354861E-002
          18 -8.392973188934134E-003
          19  5.107310806333141E-002
          20  0.385056644722506     
          21  0.521830207750406     
          22  3.026299783300548E-002
          23  5.867727485669869E-003
          24 -5.049841908057215E-002
          25 -0.384671925428329     
          26 -0.522109268270718     
          27 -5.901221417618707E-002
          28  2.504499876582712E-003
          29 -3.376389035504897E-004
          30  0.384708835620129     
Sym=    21a
Ene=   0.153755982768923     
Spin= Alpha
Occup=     0.00000000
           1 -0.273882895893561     
           2  0.103952736970609     
           3  0.296119087042691     
           4 -2.581200414267210E-002
           5  9.629335110723043E-002
           6 -0.135503240876089     
           7  0.318876713473833     
           8  1.023321236673287E-002
           9 -0.164583962538081     
          10  0.358896220365869     
          11 -0.239924234255769     
          12  0.535483546161199     
          13 -1.977220296875827E-002
          14 -1.531927108681470E-002
          15  0.633174998847393     
          16 -0.102534288268339     
          17  0.295745782683937     
          18 -2.576741876346377E-002
          19  9.614150436004366E-002
          20  0.272901723887156     
          21  0.135446066576726     
          22  0.319446041275169     
          23  1.012278130221446E-002
          24 -0.164328793548215     
          25 -0.358923187226731     
          26  0.238801423989219     
          27  0.535311383248477     
          28 -1.976243668620760E-002