*****************
                                 * O   R   C   A *
                                 *****************

The calculation has finished normally.

------------------------------------------------------------------
COORDINATES (ANGSTROEM)
------------------------------------------------------------------
1    N     -1.393450    0.000000    0.000000
2    O     -2.071675    1.066487    0.000000
3    O     -2.071675   -1.066487    0.000000
4    C      0.000000    0.000000    0.000000
5    C      0.706798    1.216345    0.000000
6    C      0.706798   -1.216345    0.000000
7    C      2.086309    1.216345    0.000000
8    C      2.086309   -1.216345    0.000000
9    C      2.783107    0.000000    0.000000
10   H      0.165416    2.164871    0.000000
11   H      0.165416   -2.164871    0.000000
12   H      2.627690    2.164871    0.000000
13   H      2.627690   -2.164871    0.000000
14   H      3.831631    0.000000    0.000000
------------------------------------------------------------------


...
---------------------
SCF CONVERGENCE
---------------------
Final Energy is    -540.098453457008 a.u.   ...
...


-----------------
DIPOLE MOMENT
-----------------
                                X             Y             Z
Electronic contribution:     -0.20124      -0.00001      -2.00000
Nuclear contribution   :      0.00000       0.00000      -0.57500
                        -----------------------------------------
Total Dipole Moment    :     -0.20124      -0.00001      -2.57500
                        -----------------------------------------
Magnitude (a.u.)       :      2.58284
Magnitude (Debye)      :      4.22013  

-----------------------------------------------------------------


        ABSORPTION SPECTRUM VIA TRANSITION ELECTRIC DIPOLE MOMENTS
-----------------------------------------------------------------------------
State   Energy    Wavelength  fosc         T2        TX        TY        TZ  
        (cm-1)      (nm)                 (au**2)    (au)      (au)      (au) 
-----------------------------------------------------------------------------
   1   31405.0    318.5   0.000100000   0.00000  -0.00000   0.00000  -0.00000
   2   34129.7    293.0   0.320000000   0.00000  -0.00000   0.00000   0.00000
   3   39292.3    254.5   0.075000000   0.00000   0.00000  -0.00000  -0.00000
   4   44444.4    225.0   0.000000000   0.00000  -0.00000  -0.00000   0.00000
   5   48780.4    205.0   0.000000000   0.00000   0.00000  -0.00000   0.00000
   6   50000.0    200.0   0.000000000   0.00000   0.00000   0.00000   0.00000
   7   52083.3    192.0   0.000000000   0.00000   0.00000   0.00000  -0.00000
   8   54347.8    184.0   0.000000000   0.00000   0.00000  -0.00000   0.00000

-----------------------------------------------------------------------------