*****************
                                 * O   R   C   A *
                                 *****************

The calculation has finished normally.

------------------------------------------------------------------
COORDINATES (ANGSTROEM)
------------------------------------------------------------------
1    O     -1.350000    0.000000    0.000000
2    H     -1.600000   -0.950000    0.000000
3    C      0.000000    0.000000    0.000000
4    C      0.700000    1.210000    0.000000
5    C      0.700000   -1.210000    0.000000
6    C      2.080000    1.210000    0.000000
7    C      2.080000   -1.210000    0.000000
8    C      2.780000    0.000000    0.000000
9    H      0.160000    2.160000    0.000000
10   H      0.160000   -2.160000    0.000000
11   H      2.620000    2.160000    0.000000
12   H      2.620000   -2.160000    0.000000
13   H      3.830000    0.000000    0.000000
------------------------------------------------------------------


...
---------------------
SCF CONVERGENCE
---------------------
Final Energy is    -307.987654321008 a.u.   ...
...


-----------------
DIPOLE MOMENT
-----------------
                                X             Y             Z
Electronic contribution:      0.50000      -0.00001      -0.90000
Nuclear contribution   :      0.00000       0.00000      -0.57500
                        -----------------------------------------
Total Dipole Moment    :      0.50000      -0.00001      -1.47500
                        -----------------------------------------
Magnitude (a.u.)       :      1.55644
Magnitude (Debye)      :      1.63155   

-----------------------------------------------------------------


        ABSORPTION SPECTRUM VIA TRANSITION ELECTRIC DIPOLE MOMENTS
-----------------------------------------------------------------------------
State   Energy    Wavelength  fosc         T2        TX        TY        TZ  
        (cm-1)      (nm)                 (au**2)    (au)      (au)      (au) 
-----------------------------------------------------------------------------
   1   35714.2    280.0   0.005000000   0.00000  -0.00000   0.00000  -0.00000
   2   36697.2    272.5   0.021000000   0.00000  -0.00000   0.00000   0.00000
   3   37453.0    267.0   0.000100000   0.00000   0.00000  -0.00000  -0.00000
   4   45454.5    220.0   0.045000000   0.00000  -0.00000  -0.00000   0.00000
   5   46511.6    215.0   0.000000000   0.00000   0.00000  -0.00000   0.00000
   6   47619.0    210.0   0.000000000   0.00000   0.00000   0.00000   0.00000
   7   48780.4    205.0   0.000000000   0.00000   0.00000   0.00000  -0.00000
   8   50000.0    200.0   0.000000000   0.00000   0.00000  -0.00000   0.00000

-----------------------------------------------------------------------------