*****************
                                 * O   R   C   A *
                                 *****************

The calculation has finished normally.

------------------------------------------------------------------
COORDINATES (ANGSTROEM)
------------------------------------------------------------------
1    C      0.000000    1.397000    0.000000
2    C      1.210660    0.698500    0.000000
3    C      1.210660   -0.698500    0.000000
4    C      0.000000   -1.397000    0.000000
5    C     -1.210660   -0.698500    0.000000
6    C     -1.210660    0.698500    0.000000
7    H      0.000000    2.476000    0.000000
8    H      2.144410    1.241000    0.000000
9    H      2.144410   -1.241000    0.000000
10   H      0.000000   -2.476000    0.000000
11   H     -2.144410   -1.241000    0.000000
12   H     -2.144410    1.241000    0.000000
------------------------------------------------------------------


...
---------------------
SCF CONVERGENCE
---------------------
Final Energy is    -232.071234567008 a.u.   ...
...


-----------------
DIPOLE MOMENT
-----------------
                                X             Y             Z
Electronic contribution:      0.00000      -0.00000      -0.00000
Nuclear contribution   :      0.00000       0.00000      -0.00000
                        -----------------------------------------
Total Dipole Moment    :      0.00000       0.00000      -0.00000
                        -----------------------------------------
Magnitude (a.u.)       :      0.00000
Magnitude (Debye)      :      0.00000 

-----------------------------------------------------------------


        ABSORPTION SPECTRUM VIA TRANSITION ELECTRIC DIPOLE MOMENTS
-----------------------------------------------------------------------------
State   Energy    Wavelength  fosc         T2        TX        TY        TZ  
        (cm-1)      (nm)                 (au**2)    (au)      (au)      (au) 
-----------------------------------------------------------------------------
   1   48780.4    205.0   0.000000000   0.00000  -0.00000   0.00000  -0.00000
   2   50000.0    200.0   0.070000000   0.00000  -0.00000   0.00000   0.00000
   3   52083.3    192.0   0.000000000   0.00000   0.00000  -0.00000  -0.00000
   4   54347.8    184.0   0.000000000   0.00000  -0.00000  -0.00000   0.00000
   5   56818.1    176.0   0.000000000   0.00000   0.00000  -0.00000   0.00000
   6   58823.5    170.0   0.000000000   0.00000  -0.00000  -0.00000   0.00000

-----------------------------------------------------------------------------